<?xml version="1.0"?>
<VTKFile type="UnstructuredGrid"  version="0.1"  >
<UnstructuredGrid>
<Piece  NumberOfPoints="22801" NumberOfCells="45000">
<Points>
<DataArray  type="Float64"  NumberOfComponents="3"  format="ascii">0 0 0  0.02094395102393195 0 0  0.0418879020478639 0 0  0.06283185307179587 0 0  0.08377580409572781 0 0  0.1047197551196598 0 0  0.1256637061435917 0 0  0.1466076571675237 0 0  0.1675516081914556 0 0  0.1884955592153876 0 0  0.2094395102393195 0 0  0.2303834612632515 0 0  0.2513274122871835 0 0  0.2722713633111154 0 0  0.2932153143350474 0 0  0.3141592653589793 0 0  0.3351032163829112 0 0  0.3560471674068432 0 0  0.3769911184307752 0 0  0.3979350694547071 0 0  0.4188790204786391 0 0  0.439822971502571 0 0  0.4607669225265029 0 0  0.4817108735504349 0 0  0.5026548245743669 0 0  0.5235987755982989 0 0  0.5445427266222308 0 0  0.5654866776461628 0 0  0.5864306286700948 0 0  0.6073745796940266 0 0  0.6283185307179586 0 0  0.6492624817418906 0 0  0.6702064327658225 0 0  0.6911503837897545 0 0  0.7120943348136864 0 0  0.7330382858376183 0 0  0.7539822368615503 0 0  0.7749261878854823 0 0  0.7958701389094142 0 0  0.8168140899333461 0 0  0.8377580409572781 0 0  0.85870199198121 0 0  0.8796459430051421 0 0  0.900589894029074 0 0  0.9215338450530058 0 0  0.9424777960769379 0 0  0.9634217471008698 0 0  0.9843656981248019 0 0  1.005309649148734 0 0  1.026253600172666 0 0  1.047197551196598 0 0  1.06814150222053 0 0  1.089085453244462 0 0  1.110029404268394 0 0  1.130973355292326 0 0  1.151917306316258 0 0  1.17286125734019 0 0  1.193805208364121 0 0  1.214749159388053 0 0  1.235693110411985 0 0  1.256637061435917 0 0  1.277581012459849 0 0  1.298524963483781 0 0  1.319468914507713 0 0  1.340412865531645 0 0  1.361356816555577 0 0  1.382300767579509 0 0  1.403244718603441 0 0  1.424188669627373 0 0  1.445132620651305 0 0  1.466076571675237 0 0  1.487020522699169 0 0  1.507964473723101 0 0  1.528908424747033 0 0  1.549852375770965 0 0  1.570796326794897 0 0  1.591740277818828 0 0  1.612684228842761 0 0  1.633628179866692 0 0  1.654572130890624 0 0  1.675516081914556 0 0  1.696460032938488 0 0  1.71740398396242 0 0  1.738347934986352 0 0  1.759291886010284 0 0  1.780235837034216 0 0  1.801179788058148 0 0  1.82212373908208 0 0  1.843067690106012 0 0  1.864011641129944 0 0  1.884955592153876 0 0  1.905899543177808 0 0  1.92684349420174 0 0  1.947787445225672 0 0  1.968731396249604 0 0  1.989675347273536 0 0  2.010619298297468 0 0  2.031563249321399 0 0  2.052507200345331 0 0  2.073451151369264 0 0  2.094395102393196 0 0  2.115339053417127 0 0  2.136283004441059 0 0  2.157226955464991 0 0  2.178170906488923 0 0  2.199114857512855 0 0  2.220058808536787 0 0  2.241002759560719 0 0  2.261946710584651 0 0  2.282890661608583 0 0  2.303834612632515 0 0  2.324778563656447 0 0  2.345722514680379 0 0  2.366666465704311 0 0  2.387610416728243 0 0  2.408554367752175 0 0  2.429498318776107 0 0  2.450442269800039 0 0  2.471386220823971 0 0  2.492330171847903 0 0  2.513274122871834 0 0  2.534218073895766 0 0  2.555162024919698 0 0  2.57610597594363 0 0  2.597049926967562 0 0  2.617993877991494 0 0  2.638937829015426 0 0  2.659881780039358 0 0  2.68082573106329 0 0  2.701769682087222 0 0  2.722713633111154 0 0  2.743657584135086 0 0  2.764601535159018 0 0  2.78554548618295 0 0  2.806489437206882 0 0  2.827433388230814 0 0  2.848377339254746 0 0  2.869321290278678 0 0  2.89026524130261 0 0  2.911209192326542 0 0  2.932153143350473 0 0  2.953097094374405 0 0  2.974041045398338 0 0  2.99498499642227 0 0  3.015928947446201 0 0  3.036872898470133 0 0  3.057816849494065 0 0  3.078760800517998 0 0  3.099704751541929 0 0  3.120648702565861 0 0  3.141592653589793 0 0  0 0.02094395102393195 0  0.02094395102393195 0.02094395102393195 0  0.0418879020478639 0.02094395102393195 0  0.06283185307179587 0.02094395102393195 0  0.08377580409572781 0.02094395102393195 0  0.1047197551196598 0.02094395102393195 0  0.1256637061435917 0.02094395102393195 0  0.1466076571675237 0.02094395102393195 0  0.1675516081914556 0.02094395102393195 0  0.1884955592153876 0.02094395102393195 0  0.2094395102393195 0.02094395102393195 0  0.2303834612632515 0.02094395102393195 0  0.2513274122871835 0.02094395102393195 0  0.2722713633111154 0.02094395102393195 0  0.2932153143350474 0.02094395102393195 0  0.3141592653589793 0.02094395102393195 0  0.3351032163829112 0.02094395102393195 0  0.3560471674068432 0.02094395102393195 0  0.3769911184307752 0.02094395102393195 0  0.3979350694547071 0.02094395102393195 0  0.4188790204786391 0.02094395102393195 0  0.439822971502571 0.02094395102393195 0  0.4607669225265029 0.02094395102393195 0  0.4817108735504349 0.02094395102393195 0  0.5026548245743669 0.02094395102393195 0  0.5235987755982989 0.02094395102393195 0  0.5445427266222308 0.02094395102393195 0  0.5654866776461628 0.02094395102393195 0  0.5864306286700948 0.02094395102393195 0  0.6073745796940266 0.02094395102393195 0  0.6283185307179586 0.02094395102393195 0  0.6492624817418906 0.02094395102393195 0  0.6702064327658225 0.02094395102393195 0  0.6911503837897545 0.02094395102393195 0  0.7120943348136864 0.02094395102393195 0  0.7330382858376183 0.02094395102393195 0  0.7539822368615503 0.02094395102393195 0  0.7749261878854823 0.02094395102393195 0  0.7958701389094142 0.02094395102393195 0  0.8168140899333461 0.02094395102393195 0  0.8377580409572781 0.02094395102393195 0  0.85870199198121 0.02094395102393195 0  0.8796459430051421 0.02094395102393195 0  0.900589894029074 0.02094395102393195 0  0.9215338450530058 0.02094395102393195 0  0.9424777960769379 0.02094395102393195 0  0.9634217471008698 0.02094395102393195 0  0.9843656981248019 0.02094395102393195 0  1.005309649148734 0.02094395102393195 0  1.026253600172666 0.02094395102393195 0  1.047197551196598 0.02094395102393195 0  1.06814150222053 0.02094395102393195 0  1.089085453244462 0.02094395102393195 0  1.110029404268394 0.02094395102393195 0  1.130973355292326 0.02094395102393195 0  1.151917306316258 0.02094395102393195 0  1.17286125734019 0.02094395102393195 0  1.193805208364121 0.02094395102393195 0  1.214749159388053 0.02094395102393195 0  1.235693110411985 0.02094395102393195 0  1.256637061435917 0.02094395102393195 0  1.277581012459849 0.02094395102393195 0  1.298524963483781 0.02094395102393195 0  1.319468914507713 0.02094395102393195 0  1.340412865531645 0.02094395102393195 0  1.361356816555577 0.02094395102393195 0  1.382300767579509 0.02094395102393195 0  1.403244718603441 0.02094395102393195 0  1.424188669627373 0.02094395102393195 0  1.445132620651305 0.02094395102393195 0  1.466076571675237 0.02094395102393195 0  1.487020522699169 0.02094395102393195 0  1.507964473723101 0.02094395102393195 0  1.528908424747033 0.02094395102393195 0  1.549852375770965 0.02094395102393195 0  1.570796326794897 0.02094395102393195 0  1.591740277818828 0.02094395102393195 0  1.612684228842761 0.02094395102393195 0  1.633628179866692 0.02094395102393195 0  1.654572130890624 0.02094395102393195 0  1.675516081914556 0.02094395102393195 0  1.696460032938488 0.02094395102393195 0  1.71740398396242 0.02094395102393195 0  1.738347934986352 0.02094395102393195 0  1.759291886010284 0.02094395102393195 0  1.780235837034216 0.02094395102393195 0  1.801179788058148 0.02094395102393195 0  1.82212373908208 0.02094395102393195 0  1.843067690106012 0.02094395102393195 0  1.864011641129944 0.02094395102393195 0  1.884955592153876 0.02094395102393195 0  1.905899543177808 0.02094395102393195 0  1.92684349420174 0.02094395102393195 0  1.947787445225672 0.02094395102393195 0  1.968731396249604 0.02094395102393195 0  1.989675347273536 0.02094395102393195 0  2.010619298297468 0.02094395102393195 0  2.031563249321399 0.02094395102393195 0  2.052507200345331 0.02094395102393195 0  2.073451151369264 0.02094395102393195 0  2.094395102393196 0.02094395102393195 0  2.115339053417127 0.02094395102393195 0  2.136283004441059 0.02094395102393195 0  2.157226955464991 0.02094395102393195 0  2.178170906488923 0.02094395102393195 0  2.199114857512855 0.02094395102393195 0  2.220058808536787 0.02094395102393195 0  2.241002759560719 0.02094395102393195 0  2.261946710584651 0.02094395102393195 0  2.282890661608583 0.02094395102393195 0  2.303834612632515 0.02094395102393195 0  2.324778563656447 0.02094395102393195 0  2.345722514680379 0.02094395102393195 0  2.366666465704311 0.02094395102393195 0  2.387610416728243 0.02094395102393195 0  2.408554367752175 0.02094395102393195 0  2.429498318776107 0.02094395102393195 0  2.450442269800039 0.02094395102393195 0  2.471386220823971 0.02094395102393195 0  2.492330171847903 0.02094395102393195 0  2.513274122871834 0.02094395102393195 0  2.534218073895766 0.02094395102393195 0  2.555162024919698 0.02094395102393195 0  2.57610597594363 0.02094395102393195 0  2.597049926967562 0.02094395102393195 0  2.617993877991494 0.02094395102393195 0  2.638937829015426 0.02094395102393195 0  2.659881780039358 0.02094395102393195 0  2.68082573106329 0.02094395102393195 0  2.701769682087222 0.02094395102393195 0  2.722713633111154 0.02094395102393195 0  2.743657584135086 0.02094395102393195 0  2.764601535159018 0.02094395102393195 0  2.78554548618295 0.02094395102393195 0  2.806489437206882 0.02094395102393195 0  2.827433388230814 0.02094395102393195 0  2.848377339254746 0.02094395102393195 0  2.869321290278678 0.02094395102393195 0  2.89026524130261 0.02094395102393195 0  2.911209192326542 0.02094395102393195 0  2.932153143350473 0.02094395102393195 0  2.953097094374405 0.02094395102393195 0  2.974041045398338 0.02094395102393195 0  2.99498499642227 0.02094395102393195 0  3.015928947446201 0.02094395102393195 0  3.036872898470133 0.02094395102393195 0  3.057816849494065 0.02094395102393195 0  3.078760800517998 0.02094395102393195 0  3.099704751541929 0.02094395102393195 0  3.120648702565861 0.02094395102393195 0  3.141592653589793 0.02094395102393195 0  0 0.0418879020478639 0  0.02094395102393195 0.0418879020478639 0  0.041887
[...]
<PointData  Scalars="f_8"> 
<DataArray  type="Float64"  Name="f_8"  format="ascii">0.0000000000000000e+00  2.8924513773414295e-01  5.6924547540784642e-01  8.3115001656656773e-01  1.0668781998782051e+00  1.2694629368202663e+00  1.4333451017030350e+00  1.5546066415022715e+00  1.6311321549763680e+00  1.6626919160235654e+00  1.6509427485992705e+00  1.5993467497544929e+00  1.5130114466109328e+00  1.3984584054933429e+00  1.2633304369880340e+00  1.1160502227919920e+00  9.6544531164573444e-01  8.2035589969472744e-01  6.8924256114502869e-01  5.7981109527491392e-01  4.9867090573475226e-01  4.5104186040476762e-01  4.4052245903686404e-01  4.6892945419092624e-01  5.3621594580072285e-01  6.4047153766405762e-01  7.7800455525212220e-01  9.4350273533568574e-01  1.1302653658924162e+00  1.3304967295962116e+00  1.5356480224901972e+00  1.7367927984227345e+00  1.9250195221888673e+00  2.0918240642202588e+00  2.2294849698971806e+00  2.3314050871155887e+00  2.3924046038366340e+00  2.4089526688211085e+00  2.3793274508970841e+00  2.3036976177108746e+00  2.1841216473734373e+00  2.0244649757287885e+00  1.8302385712746920e+00  1.6083659621956452e+00  1.3668888655163780e+00  1.1146242504551755e+00  8.6078778943579204e-01  6.1460011819495575e-01  3.8489307684590435e-01  1.7973310383318655e-01  6.0782044402552041e-03  -1.3051655231822437e-01  -2.2613217581984996e-01  -2.7864738429995611e-01  -2.8782169839120864e-01  -2.5529640475974913e-01  -1.8451338602847656e-01  -8.0555402361188133e-02  5.0085157583240190e-02  1.9979891313679130e-01  3.6020069032825980e-01  5.2250433622318226e-01  6.7791473431998839e-01  8.1801985596067939e-01  9.3516568257192279e-01  1.0227975837321310e+00  1.0757532037692290e+00  1.0904940306799649e+00  1.0652655029160125e+00  1.0001786347918813e+00  8.9720957334029583e-01  7.6011708836612724e-01  5.9428158636851802e-01  4.0647267105069734e-01  2.0455539831243735e-01  -2.8519446736025192e-03  -2.0675358567557808e-01  -3.9816912064557969e-01  -5.6852630563919071e-01  -7.1003661930094619e-01  -8.1603717838090883e-01  -8.8128405686320810e-01  -9.0218418078797158e-01  -8.7695565302401834e-01  -8.0570948788586028e-01  -6.9044916798907219e-01  -5.3498802509514976e-01  -3.4478803604702846e-01  -1.2672705737628776e-01  1.1119535223517098e-01  3.6020069032826418e-01  6.1110789712481350e-01  8.5472694927951998e-01  1.0822524896465251e+00  1.2856403216386030e+00  1.4579503469614619e+00  1.5936409932638893e+00  1.6888022994040357e+00  1.7413175078841427e+00  1.7509461393368742e+00  1.7193249561614683e+00  1.6498868115002683e+00  1.5477009688536238e+00  1.4192419098912419e+00  1.2720967734238176e+00  1.1146242504551853e+00  9.5557988152836981e-01  8.0372417049937961e-01  6.6743067926699418e-01  5.5431126806172637e-01  4.7087489565224339e-01  4.2223492605579549e-01  4.1187776719311203e-01  4.4150298511713693e-01  5.1094191218155682e-01  6.1815833539439902e-01  7.5933126223011782e-01  9.2901617221255872e-01  1.1203777304925997e+00  1.3254838144347254e+00  1.5356480224902052e+00  1.7418057135842364e+00  1.9349071575886994e+00  2.1063106273434022e+00  2.2481582629192030e+00  2.3537182893852675e+00  2.4176786374558188e+00  2.4363791378949164e+00  2.4079721427408547e+00  2.3325045520598633e+00  2.2119176574559600e+00  2.0499648029419855e+00  1.8520504531527380e+00  1.6249976913910018e+00  1.3767542956337488e+00  1.1160502227919884e+00  8.5202145300001364e-01  5.9381661379706352e-01  3.5020355460321967e-01  1.2919304208741486e-01  -6.2304003121934501e-02  -2.1877077563152578e-01  -3.3631752872762016e-01  -4.1284304220171691e-01  -4.4811758995205814e-01  -4.4378381490094077e-01  -4.0327550778887056e-01  -3.3165787544114123e-01  -2.3539631628843083e-01  -1.2206384625387479e-01  0.0000000000000000e+00  0.0000000000000000e+00  2.4625856744339336e-01  4.8498044471748436e-01  7.0894870010668010e-01  9.1157198047349197e-01  1.0871630637521363e+00  1.2311780059486499e+00  1.3404054665641330e+00  1.4130979732292122e+00  1.4490394231639858e+00  1.4495459049899349e+00  1.4173998376641030e+00  1.3567203365624074e+00  1.2727755026893317e+00  1.1717448678808657e+00  1.0604424058275328e+00  9.4601224063679046e-01  8.3561037623028223e-01  7.3608637906032592e-01  6.5367894681417038e-01  5.9373868695318588e-01  5.6049023772333462e-01  5.5684414274257132e-01  5.8426671366757432e-01  6.4271357890281988e-01  7.3062983070706722e-01  8.4501677012897247e-01  9.8156233628245593e-01  1.1348295208711898e+00  1.2984945323433410e+00  1.4656242974699882e+00  1.6289811666297953e+00  1.7813414978958502e+00  1.9158141862275044e+00  2.0261452042865007e+00  2.1069948306218746e+00  2.1541754325843314e+00  2.1648393932669077e+00  2.1376089487757932e+00  2.0726422390752028e+00  1.9716326616539566e+00  1.8377415305743281e+00  1.6754669567664071e+00  1.4904546514047967e+00  1.2892588910940455e+00  1.0790640605261486e+00  8.6737891011972557e-01  6.6171685765765620e-01  4.6927627203740452e-01  2.9663467731849946e-01  1.4947020629482308e-01  3.2322441451745107e-02  -5.1596940540019495e-02  -1.0053548144237442e-01  -1.1426750858412621e-01  -9.4095039758670451e-02  -4.2782022307612383e-02  3.5575183997625173e-02  1.3573538477917491e-01  2.5154995725788215e-01  3.7623967561845434e-01  5.0269882447926251e-01  6.2381327789159169e-01  7.3277861215767803e-01  8.2340432062312308e-01  8.9039080746778909e-01  9.2956702877375919e-01  9.3807837071975475e-01  9.1451653139092026e-01  8.5898570926465423e-01  7.7310218706945777e-01  6.5992731266126636e-01  5.2383679150278295e-01  3.7033199094810354e-01  2.0580149307446005e-01  3.7243309397262003e-02  -1.2804010768217378e-01  -2.8276073066236856e-01  -4.1996376514056932e-01  -5.3333246583211324e-01  -6.1746563505809349e-01  -6.6811566998536009e-01  -6.8237674686290284e-01  -6.5881490753406735e-01  -5.9753435047625414e-01  -5.0017701465975994e-01  -3.6985545787025537e-01  -2.1102194448567338e-01  -2.9279443718879430e-02  1.6885722372263293e-01  3.7623967561845884e-01  5.8539155801452269e-01  7.8882810638965029e-01  9.7937574064098187e-01  1.1504777561857729e+00  1.2964727823688871e+00  1.4128338706658965e+00  1.4963577968114565e+00  1.5452963377138116e+00  1.5594238207017677e+00  1.5400380284223829e+00  1.4898944558118874e+00  1.4130768286807669e+00  1.3148095792681374e+00  1.2012205108763694e+00  1.0790640605261586e+00  9.5541729033741929e-01  8.3736192979433599e-01  7.3166640012306583e-01  6.4448175208095992e-01  5.8106483952641652e-01  5.4554085982519973e-01  5.4071567052198277e-01  5.6794611501309700e-01  6.2707405333433019e-01  7.1642700849433882e-01  8.3288542579313252e-01  9.7201362958416182e-01  1.1282487762853877e+00  1.2951395658731686e+00  1.4656242974699967e+00  1.6323361330999842e+00  1.7879222424816681e+00  1.9253628929258155e+00  2.0382765486223593e+00  2.1211976528346228e+00  2.1698149581528394e+00  2.1811599919214038e+00  2.1537374209964009e+00  2.0875916169733539e+00  1.9843065090807397e+00  1.8469387253075480e+00  1.6798869357036788e+00  1.4887030978407521e+00  1.2798538413934228e+00  1.0604424058275290e+00  8.3790326712422658e-01  6.1968278107885644e-01  4.1291977991905060e-01  2.2414005917071905e-01  5.8978082862383568e-02  -7.8061956086029755e-02  -1.8379530502461475e-01  -2.5648781168969420e-01  -2.9592337330136764e-01  -3.0340475837541664e-01  -2.8168779801988930e-01  -2.3485185653667251e-01  -1.6811227689298791e-01  -8.7583033313242270e-02  0.0000000000000000e+00  0.0000000000000000e+00  2.1080868732194619e-01  4.1546903591201778e-01  6.0809235866917621e-01  7.8329795815694681e-01  9.3643933176613725e-01  1.0637983917752933e+00  1.1627392455763985e+00  1.2318148482123628e+00  1.2708218984132311e+00  1.2808016105323810e+00  1.2639863593495759e+00  1.2236945592852619e+00  1.1641784008207108e+00  1.0904311260185646e+00  1.0079622920004827e+00  9.2255086884361248e-01  8.3998698552928575e-01  7.6581363205182218e-01  7.0507962596825580e-01  6.6211465754048671e-01  6.4033626079281358e-01  6.4209716054251309e-01  6.6857967883398006e-01  7.1974182543591514e-01  7.9431743613241923e-01  8.8987035827424521e-01  1.0029003187939760e+00  1.1289958489665461e+00  1.2630275814359762e+00  1.3993734684166224e+00  1.5321660727306083e+00  1.6555511165372330e+00  1.7639459785074085e+00  1.8522868303994438e+00  1.9162535985010782e+00  1.9524629026119116e+00  1.9586205228863969e+00  1.9336267118639801e+00  1.8776297281601870e+00  1.7920252295928587e+00  1.6794015281481576e+00  1.5434330738118132e+00  1.3887267955630898e+00  1.2206279869288559e+00  1.0449941904356501e+00  8.6794693285930391e-01  6.9561213027854019e-01  5.3386047632755940e-01  3.8805912710858032e-01  2.6284550196879553e-01  1.6193305237039987e-01  8.7957453650401349e-02  4.2369907654604161e-02  2.5382185255748684e-02  3.5965776616806028e-02  7.1905152559071400e-02  1.2990277588012711e-01  2.0573124027795212e-01  2.9442585549710804e-01  3.9050923040841329e-01  4.8823800818382179e-01  5.8186094060943772e-01  6.6587699415531643e-01  7.3528218029510284e-01  7.8579429674214285e-01  8.1404573313826378e-01  8.1773589203437524e-01  7.9573654266325966e-01  7.4814548380635826e-01  6.7628615301161221e-01  5.8265318370669983e-01  4.7080627603324221e-01  3.4521700816447409e-01  2.1107527364003728e-01  7.4063796870365989e-02  -5.9889423788013860e-02  -1.8486992918114833e-01  -2.9523555842860749e-01  -3.8586384382884137e-01  -4.5237722603399222e-01  -4.9133624115723495e-01  -5.0039222914421111e-01  -4.7839287977309441e-01  -4.2543599182532810e-01  -3.4286908230345919e-01  -2.3323484724043714e-01  -1.0016484030653207e-01  5.1774003263816745e-02  2.1727331075577475e-01  3.9050923040841751e-01  5.6539055292516538e-01  7.3581817762357793e-01  8.9594461034198136e-01  1.0404221800946187e+00  1.1646291556624173e+00  1.2648639102193504e+00  1.3384986794620828e+00  1.3840862254578803e+00  1.4014147773340015e+00  1.3915088810144092e+00  1.3565761546441302e+00  1.2999023107894192e+00  1.2256990676241717e+00  1.1389116302873650e+00  1.0449941904356603e+00  9.4966328950081325e-01  8.5863985821747901e-01  7.7739123934997489e-01  7.1088450061262765e-01  6.6336185054726537e-01  6.3814800319660436e-01  6.3749794005652138e-01  6.6249175107893787e-01  7.1298117764833058e-01  7.8759021945548879e-01  8.8376980286391349e-01  9.9790414404556871e-01  1.1254641791916207e+00  1.2612013753025642e+00  1.3993734684166304e+00  1.5339922788640357e+00  1.6590827863121742e+00  1.7689421532558325e+00  1.8583873858097943e+00  1.9229808151780283e+00  1.9592235503995139e+00  1.9647084506414572e+00  1.9382259323499900e+00  1.8798179857564112e+00  1.7907780365860937e+00  1.6735966535037958e+00  1.5318554665136717e+00  1.3700739228749055e+00  1.1935155662716619e+00  1.0079622920004789e+00  8.1946642859050822e-01  6.3409146347508472e-01  4.5765272482340769e-01  2.9546933181403029e-01  1.5213823148677569e-01  3.1340173449636188e-02  -6.4313923595112246e-02  -1.3338952623107664e-01  -1.7568333318830240e-01  -1.9222404727946893e-01  -1.8521906937859611e-01  -1.5794947579267404e-01  -1.1461790143360470e-01  -6.0156010106106418e-02  0.0000000000000000e+00  0.0000000000000000e+00  1.8150714593237349e-01  3.5799465293946420e-01  5.2465374050106017e-01  6.7708816171898178e-01  8.1149791338017196e-01  9.2483698380998813e-01  1.0149382757538032e+00  1.0806002756306092e+00  1.1216317117441947e+00  1.1388522793767819e+00  1.1340494299165578e+00  1.1098931404083534e+00  1.0698124152896846e+00  1.0178389433721988e+00  9.5842476731222059e-01  8.9624195720789090e-01  8.3597306499142532e-01  7.8210153764942070e-01  7.3871126746654381e-01  7.0930405644769146e-01  6.9664298736491981e-01  7.0262855980068784e-01  7.2821301568991659e-01  7.7335660787444105e-01  8.3702773011244913e-01  9.1724690804161413e-01  1.0111727316526566e+00  1.1152259747650410e+00  1.2252464760173951e+00  1.3366759220299167e+00  1.4447585393387796e+00  1.5447509170150659e+00  1.6321317808654530e+00  1.7028025403027867e+00  1.7532698303710856e+00  1.7808020564758400e+00  1.7835530838027880e+00  1.7606476476335438e+00  1.7122247321087032e+00  1.6394370004091345e+00  1.5444062786136288e+00  1.4301370147696002e+00  1.3003914701068955e+00  1.1595320706226366e+00  1.0123377814282950e+00  8.6380250060329766e-01  7.1892425426964190e-01  5.8249437588571429e-01  4.5889585281946388e-01  3.5191962210138139e-01  2.6460681241065653e-01  1.9912379511662096e-01  1.5667547315464114e-01  1.3746056533571085e-01  1.4067080841107474e-01  1.6453408004696421e-01  2.0639952668586031e-01  2.6286094495539863e-01  3.2991299404418473e-01  4.0313338233426899e-01  4.7788303723817388e-01  5.4951548220702129e-01  6.1358624355904601e-01  6.6605310965982945e-01  7.0345846606741613e-01  7.2308571500277796e-01  7.2308292161622312e-01  7.0254826342138477e-01  6.6157353028590749e-01  6.0124375746393099e-01  5.2359299312068075e-01  4.3151812075901114e-01  3.2865449203651326e-01  2.1921879645084905e-01  1.0782602823217992e-01  -7.1145515910204561e-04  -1.0159400384560072e-01  -1.9024469556387286e-01  -2.6251012502065119e-01  -3.1484318409180001e-01  -3.4445983946537595e-01  -3.4946304878361178e-01  -3.2892839058877238e-01  -2.8294765474850436e-01  -2.1262847548831240e-01  -1.2005000848150089e-01  -8.1765727638360448e-03  1.1926698632490899e-01  2.5795278562822671e-01  4.0313338233427315e-01  5.4984324565414167e-01  6.9310944083751613e-01  8.2816234300874891e-01  9.5063719818830250e-01  1.0567577499668124e+00  1.1434939350870026e+00  1.2086867853596455e+00  1.2511351073216259e+00  1.2706401821619491e+00  1.2680065636571218e+00  1.2449989709608045e+00  1.2042571922086081e+00  1.1491727501517650e+00  1.0837327522132585e+00  1.0123377814283052e+00  9.3960181901269424e-01  8.7014297422479236e-01  8.0837419844672787e-01  7.5830316047230850e-01  7.2335005885341430e-01  7.0619136235743118e-01  7.0863633542855931e-01  7.3154177159780276e-01  7.7476868672456822e-01  8.3718288881536829e-01  9.1669942216146594e-01  1.0103689645425797e+00  1.1145024211329617e+00  1.2248282877288366e+00  1.3366759220299258e+00  1.4451767276273546e+00  1.5454744706471608e+00  1.6329355479755470e+00  1.7033500261829531e+00  1.7531146716681854e+00  1.7793899776257296e+00  1.7802243278949190e+00  1.7546398720056902e+00  1.7026763571162080e+00  1.6253909980034256e+00  1.5248143856078749e+00  1.4038643539723044e+00  1.2662215608735374e+00  1.1161722088178405e+00  9.5842476731221704e-01  7.9790869176224311e-01  6.3956391940756685e-01  4.8813032408546531e-01  3.4794631177522128e-01  2.2276533782104962e-01  1.1559834199290939e-01  2.8588963425608616e-02  -3.7073036451196813e-02  -8.1196385941297536e-02  -1.0458902817556037e-01  -1.0901495642235143e-01  -9.7109075821824195e-02  -7.2253842942649665e-02  -3.8423105677578673e-02  0.0000000000000000e+00  0.0000000000000000e+00  1.5722524346808378e-01  3.1034868941240590e-01  4.5543978867661827e-01  5.8890303483774820e-01  7.0762717622558013e-01  8.0911335433068376e-01  8.9157659799821742e-01  9.5401626681207508e-01  9.9625239355615658e-01  1.0189263653139931e+00  1.0234659405315183e+00  1.0120161571419095e+00  9.8733917655747505e-01  9.5268746486832467e-01  9.1165587666830916e-01  8.6801912768430500e-01  8.2556177957910415e-01  7.8790818608788993e-01  7.5835984980080706e-01  7.3974731341881617e-01  7.3430307241848614e-01  7.4356107560540152e-01  7.6828721625055851e-01  8.0844386025948112e-01  8.6318996840132201e-01  9.3091681212710642e-01  1.0093177250099958e+00  1.0954888424235656e+00  1.1860564258386468e+00  1.2773252043468715e+00  1.3654412455795275e+00  1.4465622313187982e+00  1.5170276876365514e+00  1.5735217195751638e+00  1.6132211262046372e+00  1.6339224091175750e+00  1.6341421082153691e+00  1.6131860627587047e+00  1.5711845522319496e+00  1.5090917613213444e+00  1.4286495711276219e+00  1.3323172365460649e+00  1.2231699994722540e+00  1.1047710440264986e+00  9.8102236405159782e-01  8.5600103385594761e-01  7.3378801031101681e-01  6.1829692012619297e-01  5.1311028618217669e-01  4.2133032120661190e-01  3.4545078005422281e-01  2.8725544125078484e-01  2.4774762451162874e-01  2.2711379452137892e-01  2.2472281164481800e-01  2.3916083253184972e-01  2.6830030586095172e-01  3.0940001881359769e-01  3.5923179338996342e-01  4.1422826764630410e-01  4.7064527622758318e-01  5.2473170742142750e-01  5.7289938821401676e-01  6.1188554871775336e-01  6.3890074286491461e-01  6.5175573918920893e-01  6.4896181600635527e-01  6.2980005912014869e-01  5.9435661645195659e-01  5.4352235343752187e-01  4.7895691055308282e-01  4.0301872184560650e-01  3.1866404277171895e-01  2.2931939189466577e-01  1.3873297476660779e-01  5.0811578765024186e-02  -3.0549935478277772e-02  -1.0163909496063356e-01  -1.5908877659808923e-01  -2.0002554584718091e-01  -2.2219688382885727e-01  -2.2407173593608698e-01  -2.0490997904987954e-01  -1.6479776109160399e-01  -1.0464715641978620e-01  -2.6160138433417125e-02  6.8241571407778395e-02  1.7551772917143263e-01  2.9213746309794547e-01  4.1422826764630793e-01  5.3773960651961028e-01  6.5861399706359802e-01  7.7295812266719655e-01  8.7720651968302799e-01  9.6827071092952743e-01  1.0436672948022010e+00  1.1016194195678726e+00  1.1411272363070295e+00  1.1620042803350459e+00  1.1648782204913242e+00  1.1511559733333574e+00  1.1229547369324431e+00  1.0830019885610231e+00  1.0345088469855994e+00  9.8102236405160825e-01  9.2626323089686646e-01  8.7395602122226890e-01  8.2765941973983681e-01  7.9060388397646164e-01  7.6554386203665348e-01  7.5463105195114744e-01  7.5931426770248078e-01  7.8027031315914519e-01  8.1736890883677249e-01  8.6967322691994720e-01  9.3547603242400301e-01  1.0123698708303219e+00  1.0973482530688121e+00  1.1869334324498944e+00  1.2773252043468801e+00  1.3645642389682975e+00  1.4447028206735688e+00  1.5139755418162424e+00  1.5689624992782853e+00  1.6067378676860307e+00  1.6249973605403012e+00  1.6221590113067998e+00  1.5974328706616425e+00  1.5508565726993047e+00  1.4832952127035224e+00  1.3964055369519790e+00  1.2925660028941306e+00  1.1747757578290996e+00  1.0465269408139457e+00  9.1165587666830661e-01  7.7417965173867931e-01  6.3812519830747494e-01  5.0735834033566563e-01  3.8542025338034230e-01  2.7537846602928917e-01  1.7969889327534141e-01  1.0014447175583617e-01  3.7704802941978893e-02  -7.4401459501316856e-03  -3.5920723059123583e-02  -4.9142652313424622e-02  -4.9218028129622421e-02  -3.8865288837590654e-02  -2.1282569661558601e-02  0.0000000000000000e+00  0.0000000000000000e+00  1.3704513852755582e-01  2.7073507256545737e-01  3.9785368995525816e-01  5.1545701272981304e-01  6.2099440235371572e-01  7.1241265928894926e-01  7.8823849509630728e-01  8.4763580006331674e-01  8.9043523035436434e-01  9.1713484779151500e-01  9.2887180975361239e-01  9.2736637107029141e-01  9.1484066892997995e-01  8.9391586287531510e-01  8.6749214680838527e-01  8.3861689728191513e-01  8.1034673955279557e-01  7.8560957732222758e-01  7.6707263222997835e-01  7.5702227500827957e-01  7.5726091328480671e-01  7.6902545395187349e-01  7.9293091344743505e-01  8.2894164851160301e-01  8.7637147110625335e-01  9.3391264705549371e-01  9.9969251383665414e-01  1.0713552440805785e+00  1.1461651805667565e+00  1.2211272239393938e+00  1.2931190073136605e+00  1.3590290750440486e+00  1.4158950187867902e+00  1.4610355241566797e+00  1.4921705457547239e+00  1.5075243455744523e+00  1.5059068771824093e+00  1.4867699429539554e+00  1.4502356527390461e+00  1.3970959215166718e+00  1.3287830080294480e+00  1.2473123608147849e+00  1.1552002472095577e+00  1.0553597419595038e+00  9.5097959689565181e-01  8.4539126045787594e-01  7.4192983299228532e-01  6.4379500812586488e-01  5.5391805057643562e-01  4.7484059648866833e-01  4.0861054534883706e-01  3.5669956532066677e-01  3.1994578911971000e-01  2.9852417659335817e-01  2.9194581111496842e-01  2.9908613257466454e-01  3.1824084541249992e-01  3.4720703104807688e-01  3.8338589305576704e-01  4.2390261863340040e-01  4.6573809260442733e-01  5.0586668303708859e-01  5.4139405315783895e-01  5.6968895413225262e-01  5.8850321748527901e-01  5.9607468288278731e-01  5.9120854409984003e-01  5.7333354060089770e-01  5.4253052296424853e-01  4.99